          55
Energy of minimum      1=      -52.6568945749 first found at generation      445
X        -0.1534032766        1.0629148056        1.4513672642
X        -0.5537546077        0.4628700465        2.0111552708
X         0.2813242428        0.2201269761        1.7100643067
X        -0.4966074557       -0.2515639076        1.4300143409
X         1.1557386081       -0.0828567420        1.3992024534
X         0.7816470093        0.8217866044        1.2082276933
X         0.4294375037       -1.4338133651        0.8465314546
X        -0.9713976721        0.5299990367        1.1938972355
X         0.3663231918       -0.4952151571        1.0609986429
X         1.2032475089       -0.9877137105        1.0686059152
X        -0.4111901223       -0.9803877674        0.8320411545
X         1.6601316043        0.5352286164        0.9238996022
X        -0.0737358408        0.3987427018        0.8061315180
X         0.2628000994        1.3882709605        0.6474884825
X        -0.6756337720        1.2023749133        0.6319580109
X         1.6851068029       -0.3564353244        0.5999526212
X         0.8642288436        0.1558903760        0.5214199973
X        -0.9132446198       -0.1958470235        0.5534619522
X         1.1660875747        1.1049313737        0.3704103683
X         0.8333618483       -1.7390397336        0.0547435488
X        -1.4441300056        0.5587958558        0.3471967938
X        -0.0243971330       -1.3205115963        0.0301132689
X        -0.0480101866       -0.3144898007        0.1519298360
X         1.6052721003       -1.2504399868        0.2413613724
X         0.8036952152       -0.7783035477        0.2044538517
X        -0.9429181107       -1.0236579962        0.0600787801
X        -0.5899169315        0.5224806817       -0.0496953378
X         0.3608032004        0.7497053062       -0.0506925458
X         1.6646453564        0.3788892725       -0.0264600806
X        -1.1759898023        1.2904610051       -0.1702760782
X         0.6694803813        1.6561103425       -0.1909393187
X        -1.5731028079       -0.3063137384       -0.1464208691
X        -0.2549412513        1.4898355751       -0.1782200960
X         1.6907573607       -0.5125101747       -0.3386132075
X         0.8507423236       -0.0246100028       -0.4437946923
X        -0.7408072806       -0.3426169228       -0.5775136664
X         0.3510751263       -1.6874853949       -0.7702299184
X         1.1494790798        0.9232940617       -0.6011886209
X         0.1977662951       -0.7085534702       -0.6996174034
X        -1.3681452334        0.4837990734       -0.6203514438
X        -0.5295397776       -1.3560598326       -0.7843810813
X         1.0966059131       -1.1564050011       -0.6377357403
X        -1.4095075972       -1.0584095751       -0.7410686839
X        -0.0214586677        0.2749351888       -0.8029240318
X        -0.6400797386        1.0307166017       -0.9248359534
X         0.3012447231        1.2042753723       -0.9349550028
X         1.5882435321        0.1582675233       -0.9850766257
X        -1.5649656549       -0.2662053442       -1.1327411414
X         0.9219307230       -0.4943739855       -1.2882371221
X         0.0993723946       -1.1578589811       -1.4995171781
X         0.7625376843        0.4346375686       -1.3434158542
X        -0.7645307923       -0.7372204062       -1.4440812591
X        -0.8088850249        0.2122891030       -1.3982192529
X         0.0517828472       -0.2303941503       -1.5995059117
X        -0.0760987179        0.7269810885       -1.6552822946
          55
Energy of minimum      2=      -52.6568534887 first found at generation     1508
X        -0.1535524683        1.0521295338        1.4533341508
X        -0.5567344890        0.4535000435        2.0124149356
X         0.2778216293        0.2079281751        1.7118256796
X        -0.5013037758       -0.2603758013        1.4303669215
X         1.1516146256       -0.0968922897        1.3992908883
X         0.7799522432        0.8079562814        1.2097632121
X         0.4212435389       -1.4442088638        0.8439104593
X        -0.9743612280        0.5225487002        1.1956099831
X         0.3608814476       -0.5061518761        1.0610534392
X         1.1965929796       -1.0004190555        1.0660550157
X        -0.4180756484       -0.9887159107        0.8310655845
X         1.6579639113        0.5203373594        0.9248264044
X        -0.0760970881        0.3887878346        0.8072018746
X         0.2631555449        1.3769150115        0.6495964967
X        -0.6760090582        1.1938542724        0.6341911811
X         1.6814732718       -0.3704026971        0.5989596097
X         0.8614005046        0.1432433979        0.5214530638
X        -0.9183310154       -0.2021667338        0.5543358166
X         1.1655653452        1.0921361487        0.3724078690
X         0.8247677949       -1.7489266337        0.0513589202
X        -1.4456379750        0.5549943459        0.3482230461
X        -0.0324608209       -1.3287658325        0.0278214823
X        -0.0537462478       -0.3243816181        0.1525155801
X         1.5982845804       -1.2629798779        0.2381555777
X         0.7974116715       -0.7890704741        0.2028057249
X        -0.9499126193       -1.0292082218        0.0593595790
X        -0.5912757601        0.5148240180       -0.0485810746
X         0.3602812202        0.7392440298       -0.0498503720
X         1.6621552120        0.3659233116       -0.0261326751
X        -1.1743915563        1.2857997438       -0.1685073680
X         0.6717179931        1.6451441357       -0.1888153692
X        -1.5771042736       -0.3093528199       -0.1464776982
X        -0.2530175834        1.4814113074       -0.1753068619
X         1.6868318521       -0.5247038429       -0.3399726206
X         0.8476154373       -0.0350211513       -0.4446701368
X        -0.7450857156       -0.3484873332       -0.5781563434
X         0.3428965781       -1.6949436585       -0.7732089480
X         1.1492494436        0.9121189581       -0.6004680803
X         0.1918767329       -0.7155610598       -0.7007658156
X        -1.3690824647        0.4802828813       -0.6194204003
X        -0.5370081546       -1.3611393156       -0.7867336691
X         1.0896296982       -1.1653879910       -0.6404312095
X        -1.4161152953       -1.0610097265       -0.7420996773
X        -0.0239767514        0.2681488228       -0.8032314695
X        -0.6396838508        1.0260376801       -0.9234426260
X         0.3018839609        1.1961539706       -0.9336396559
X         1.5851310322        0.1461950032       -0.9863159206
X        -1.5688887425       -0.2680093416       -1.1330450867
X         0.9161162128       -0.5033651605       -1.2907061151
X         0.0931161365       -1.1632694329       -1.5014414766
X         0.7602858217        0.4264598215       -1.3438558034
X        -0.7702287718       -0.7407801628       -1.4455826091
X        -0.8116154073        0.2088216914       -1.3977532444
X         0.0472002377       -0.2356787647       -1.6011417059
X        -0.0774759846        0.7218142902       -1.6551413107
          55
Energy of minimum      3=      -52.6568451114 first found at generation      850
X        -0.1136697141        1.0452436579        1.4882637326
X        -0.5224999246        0.4452992479        2.0417792836
X         0.3067734282        0.1911790592        1.7340247252
X        -0.4812616920       -0.2632706065        1.4524059311
X         1.1742370171       -0.1238467842        1.4146745889
X         0.8156606067        0.7897009910        1.2369396670
X         0.4203000278       -1.4552550012        0.8523515213
X        -0.9431038057        0.5293426176        1.2276428616
X         0.3756786782       -0.5186515492        1.0775553938
X         1.2037561153       -1.0261446796        1.0741723325
X        -0.4123341675       -0.9874009324        0.8476237693
X         1.6864945660        0.4907612952        0.9427157482
X        -0.0499223484        0.3873796541        0.8352082131
X         0.3031180043        1.3712889893        0.6853435645
X        -0.6389102146        1.2047372008        0.6743524837
X         1.6927234867       -0.3975520620        0.6092689984
X         0.8808477392        0.1306622561        0.5419021652
X        -0.9023542983       -0.1913531257        0.5789806999
X         1.1989452750        1.0755524323        0.3990938188
X         0.8139210392       -1.7587618386        0.0550113010
X        -1.4219264977        0.5745944526        0.3862608941
X        -0.0361401379       -1.3246890482        0.0399341446
X        -0.0401076627       -0.3192595975        0.1741153278
X         1.5958208223       -1.2864163254        0.2413833968
X         0.8029520679       -0.7990220271        0.2151371685
X        -0.9499600705       -1.0142014496        0.0790339386
X        -0.5693257207        0.5297588474       -0.0144233255
X         0.3851728944        0.7395924524       -0.0213222195
X         1.6816858270        0.3452120674       -0.0091595342
X        -1.1431341812        1.3076635799       -0.1235464561
X         0.7087459713        1.6419019053       -0.1529894806
X        -1.5700549809       -0.2839756085       -0.1159843343
X        -0.2184938457        1.4918705770       -0.1357059265
X         1.6900067354       -0.5433166366       -0.3308200802
X         0.8582215312       -0.0390667934       -0.4251789453
X        -0.7396480982       -0.3273855071       -0.5491862356
X         0.3280325247       -1.6902692470       -0.7666080507
X         1.1732735965        0.9052619817       -0.5746009185
X         0.1909741469       -0.7083159402       -0.6836632895
X        -1.3517091826        0.5085628213       -0.5806771415
X        -0.5459569250       -1.3441757836       -0.7717432784
X         1.0826710016       -1.1733319524       -0.6331087220
X        -1.4200312212       -1.0311294566       -0.7200472383
X        -0.0108910059        0.2793273171       -0.7752816864
X        -0.6163839877        1.0469454317       -0.8839825304
X         0.3278910860        1.2049889085       -0.8994552433
X         1.5952096656        0.1361112289       -0.9694607776
X        -1.5641750271       -0.2317502927       -1.1010660182
X         0.9151912538       -0.5015485473       -1.2752161996
X         0.0863069964       -1.1457687964       -1.4880951180
X         0.7724548621        0.4315838866       -1.3190704225
X        -0.7711292064       -0.7119588617       -1.4204503726
X        -0.8019720636        0.2370599112       -1.3654152905
X         0.0501691379       -0.2165382964       -1.5794996431
X        -0.0628463581        0.7430406648       -1.6221519726
          55
Energy of minimum      4=      -52.6568368446 first found at generation     2220
X        -0.1125390029        1.0235273071        1.4635625910
X        -0.5163947078        0.4156265537        2.0127390469
X         0.3140812048        0.1708925581        1.7014502234
X        -0.4705183794       -0.2852397976        1.4145355518
X         1.1834749663       -0.1345948639        1.3803123651
X         0.8187903822        0.7785395472        1.2113060486
X         0.4395746311       -1.4640703336        0.7995120123
X        -0.9367450344        0.5073117247        1.1989773116
X         0.3880524361       -0.5297476276        1.0353581376
X         1.2192857646       -1.0321110858        1.0288181591
X        -0.3957193992       -1.0008431029        0.7994343037
X         1.6929279249        0.4890652076        0.9179728738
X        -0.0429084427        0.3737366153        0.8027050715
X         0.3044243832        1.3632311178        0.6653542989
X        -0.6359029042        1.1877801543        0.6493716327
X         1.7068798529       -0.3951864009        0.5735939602
X         0.8915717534        0.1279753592        0.5092217206
X        -0.8897012897       -0.2036807790        0.5415784242
X         1.2032668676        1.0764296586        0.3786346348
X         0.8375292527       -1.7541871258       -0.0009769014
X        -1.4127355850        0.5617799964        0.3543650580
X        -0.0159253022       -1.3252731944       -0.0121974382
X        -0.0280921305       -0.3240963197        0.1315037814
X         1.6160752146       -1.2792842538        0.1942535758
X         0.8193570035       -0.7977319264        0.1716043910
X        -0.9317763905       -1.0190222842        0.0296891746
X        -0.5617010410        0.5230991502       -0.0481741454
X         0.3919813344        0.7395647458       -0.0473483232
X         1.6923415396        0.3544248541       -0.0358218501
X        -1.1385552278        1.3012754198       -0.1485135429
X         0.7105836676        1.6455593112       -0.1684498029
X        -1.5540629984       -0.2892834536       -0.1576323104
X        -0.2153744480        1.4889313979       -0.1562296986
X         1.7074604260       -0.5293622680       -0.3686700150
X         0.8718340448       -0.0308930971       -0.4599123318
X        -0.7247893074       -0.3273437370       -0.5949351249
X         0.3512973190       -1.6777085189       -0.8221503288
X         1.1808625941        0.9173232827       -0.5961408037
X         0.2098865834       -0.7007705501       -0.7308063980
X        -1.3426092632        0.5081241752       -0.6160695563
X        -0.5271742035       -1.3370164680       -0.8234887602
X         1.1043662737       -1.1587397222       -0.6806510675
X        -1.4037429140       -1.0300002348       -0.7690921676
X         0.0009882826        0.2870255089       -0.8085332193
X        -0.6090283109        1.0523732865       -0.9117145781
X         0.3345772996        1.2149447176       -0.9213189778
X         1.6100105360        0.1570797711       -0.9989333389
X        -1.5511504735       -0.2276936511       -1.1434818904
X         0.9356875605       -0.4804113755       -1.3151975209
X         0.0957399009       -1.1332713874       -1.5389215774
X         0.7855200686        0.4499522450       -1.3474530069
X        -0.7599414008       -0.7020445706       -1.4697066799
X        -0.7897445557        0.2468070648       -1.4022425220
X         0.0647036887       -0.2028783498       -1.6152092515
X        -0.0509303310        0.7572915263       -1.6505266080
          55
Energy of minimum      5=      -52.6568336800 first found at generation     2329
X        -0.1183024603        1.0753597657        1.4793432534
X        -0.5182435498        0.4759759384        2.0404261482
X         0.3057606212        0.2215733558        1.7192602897
X        -0.4861253977       -0.2315574843        1.4486731197
X         1.1686223685       -0.0941899654        1.3869590863
X         0.8078142303        0.8191708522        1.2145723440
X         0.4064258612       -1.4225177004        0.8332021767
X        -0.9496194377        0.5620647184        1.2319495557
X         0.3651357274       -0.4860057287        1.0591510076
X         1.1933885939       -0.9950463428        1.0444245527
X        -0.4258930453       -0.9539984982        0.8402904192
X         1.6763341612        0.5197129416        0.9102433784
X        -0.0622737744        0.4187072026        0.8242743040
X         0.2895714159        1.4026190652        0.6715047338
X        -0.6525159309        1.2349982133        0.6708755824
X         1.6785726321       -0.3679922208        0.5742296232
X         0.8662548549        0.1611584323        0.5177096414
X        -0.9155726391       -0.1553462433        0.5799564954
X         1.1832036707        1.1063339282        0.3742019963
X         0.7890696570       -1.7260845293        0.0300762765
X        -1.4353872710        0.6123392048        0.3929939354
X        -0.0609981798       -1.2908583720        0.0270197349
X        -0.0609944072       -0.2855301348        0.1605360854
X         1.5737460887       -1.2547345825        0.2059331401
X         0.7810655847       -0.7671859277        0.1908955204
X        -0.9724999668       -0.9767958304        0.0781009762
X        -0.5903582564        0.5639930040       -0.0214405647
X         0.3641492099        0.7719080355       -0.0367424696
X         1.6601422427        0.3756820142       -0.0420240241
X        -1.1637556470        1.3449379575       -0.1220628986
X         0.6873561766        1.6740098764       -0.1706214220
X        -1.5913090726       -0.2433754641       -0.1078152480
X        -0.2395846196        1.5251990455       -0.1435019843
X         1.6622656414       -0.5116629626       -0.3667678963
X         0.8310191407       -0.0062421695       -0.4495741329
X        -0.7683163095       -0.2911937466       -0.5544347977
X         0.2917066626       -1.6560248529       -0.7842939369
X         1.1456894387        0.9376596018       -0.5995616376
X         0.1589258379       -0.6742510950       -0.7000746887
X        -1.3799467220        0.5479613005       -0.5773869166
X        -0.5815911220       -1.3078152819       -0.7779683564
X         1.0494523044       -1.1402696441       -0.6613105272
X        -1.4537743505       -0.9917648256       -0.7149337311
X        -0.0415508633        0.3146710614       -0.7881225541
X        -0.6473064863        1.0841717792       -0.8897419030
X         0.2968925480        1.2390932242       -0.9138273336
X         1.5620508104        0.1694959412       -1.0019273709
X        -1.6010962573       -0.1918608616       -1.0938854472
X         0.8768101291       -0.4665846854       -1.2999449740
X         0.0390707250       -1.1118401329       -1.5028141547
X         0.7356268807        0.4663455103       -1.3405289300
X        -0.8146555359       -0.6749056054       -1.4248385220
X        -0.8407087785        0.2744354823       -1.3684313187
X         0.0072995671       -0.1819431479       -1.5920442172
X        -0.1029259422        0.7784151926       -1.6333709281
          55
Energy of minimum      6=      -52.6568313688 first found at generation     1773
X        -0.1113360946        1.0538335792        1.4898666289
X        -0.5024299798        0.4511806924        2.0535321491
X         0.3249783401        0.2077102232        1.7325515196
X        -0.4605568466       -0.2576015231        1.4641701531
X         1.1912968614       -0.0957499984        1.4027760482
X         0.8179944467        0.8125890193        1.2272474019
X         0.4483831219       -1.4391261360        0.8518869367
X        -0.9363700274        0.5285865802        1.2457849597
X         0.3940444246       -0.5023607443        1.0757501320
X         1.2282317798       -0.9981640670        1.0625929718
X        -0.3900487688       -0.9816163312        0.8576600111
X         1.6894998954        0.5244799672        0.9240628463
X        -0.0474115208        0.3953251119        0.8370020040
X         0.2908331475        1.3860802358        0.6817376755
X        -0.6482746304        1.2016512581        0.6806372441
X         1.7039090951       -0.3641485340        0.5912924876
X         0.8840072933        0.1525593900        0.5331094145
X        -0.8944336648       -0.1911861351        0.5976947786
X         1.1878048406        1.1015563950        0.3852656689
X         0.8374227872       -1.7383300379        0.0503502261
X        -1.4231594738        0.5677411015        0.4055010808
X        -0.0189016346       -1.3170942141        0.0448081771
X        -0.0389613726       -0.3136392715        0.1776110824
X         1.6143540827       -1.2541166905        0.2254889123
X         0.8135843207       -0.7786981623        0.2083871329
X        -0.9329368781       -1.0123140933        0.0929767656
X        -0.5779650146        0.5283734937       -0.0092369549
X         0.3731778722        0.7542756185       -0.0242511443
X         1.6762141360        0.3775062857       -0.0272035540
X        -1.1626108598        1.3012993187       -0.1120189962
X         0.6832463658        1.6608962964       -0.1609082115
X        -1.5629376324       -0.2918700833       -0.0956631180
X        -0.2414803910        1.4971861642       -0.1337488472
X         1.6926864370       -0.5110972303       -0.3487326618
X         0.8536271565       -0.0176867402       -0.4329178094
X        -0.7400038187       -0.3286795319       -0.5448210020
X         0.3409905134       -1.6774005245       -0.7653329085
X         1.1531164916        0.9303858397       -0.5871829222
X         0.1943192814       -0.6971458902       -0.6820122960
X        -1.3655024432        0.5006983524       -0.5667224436
X        -0.5370759822       -1.3400237885       -0.7626089295
X         1.0903727531       -1.1501812731       -0.6421962224
X        -1.4146758146       -1.0393646800       -0.6999676130
X        -0.0224998924        0.2890488927       -0.7747920976
X        -0.6406412536        1.0473713296       -0.8784034124
X         0.3008491228        1.2185395703       -0.9032621624
X         1.5825531755        0.1673795390       -0.9857050102
X        -1.5727782559       -0.2437071173       -1.0831384712
X         0.9086175869       -0.4794040510       -1.2823906242
X         0.0828783609       -1.1372360011       -1.4848467282
X         0.7523333768        0.4511302204       -1.3274687523
X        -0.7801433668       -0.7152854369       -1.4136398491
X        -0.8201555181        0.2344611380       -1.3577165142
X         0.0349013036       -0.2090971461       -1.5767399679
X        -0.0902625067        0.7497490804       -1.6216201913
          55
Energy of minimum      7=      -52.6568313574 first found at generation     1653
X        -0.1302044631        1.0560118417        1.4652927855
X        -0.5171484564        0.4533427005        2.0322842661
X         0.3127132656        0.2143187120        1.7151205976
X        -0.4681615297       -0.2613601480        1.4504167314
X         1.1819403636       -0.0841707519        1.3883901340
X         0.7997173318        0.8193673053        1.2039535618
X         0.4526842287       -1.4393389564        0.8483530272
X        -0.9502960069        0.5186150707        1.2233000971
X         0.3884712640       -0.5008341947        1.0649450517
X         1.2275975700       -0.9891708046        1.0578042095
X        -0.3909380991       -0.9896723827        0.8511017631
X         1.6740497001        0.5368014203        0.9037422312
X        -0.0602137743        0.3921192476        0.8185803244
X         0.2691037488        1.3840443313        0.6529587353
X        -0.6682103125        1.1938118401        0.6572322877
X         1.6973142451       -0.3548320264        0.5805843469
X         0.8727075936        0.1535431509        0.5160948757
X        -0.9025081543       -0.2070317746        0.5823623800
X         1.1676859579        1.1041706356        0.3589500281
X         0.8429288185       -1.7413637009        0.0482671661
X        -1.4402188035        0.5461543455        0.3874437812
X        -0.0178127859       -1.3277237909        0.0417977566
X        -0.0448852326       -0.3221137574        0.1649472309
X         1.6149657129       -1.2490123632        0.2234024233
X         0.8105455922       -0.7810870171        0.2009954714
X        -0.9374063246       -1.0349876515        0.0898774345
X        -0.5935748127        0.5139861151       -0.0260472534
X         0.3560199236        0.7448890531       -0.0463747222
X         1.6607964594        0.3802941998       -0.0468824737
X        -1.1850818448        1.2798289333       -0.1341636642
X         0.6583130277        1.6523224384       -0.1939898401
X        -1.5760107011       -0.3203587248       -0.1034214804
X        -0.2651559692        1.4827442176       -0.1618110996
X         1.6873368439       -0.5105063343       -0.3574402661
X         0.8407374462       -0.0285238764       -0.4486645371
X        -0.7518128383       -0.3519804310       -0.5501271691
X         0.3449239210       -1.6903038138       -0.7670170185
X         1.1325162287        0.9208780265       -0.6126206925
X         0.1850195717       -0.7140541498       -0.6918268464
X        -1.3838260533        0.4722159243       -0.5800944941
X        -0.5387620513       -1.3661331345       -0.7623237617
X         1.0896699435       -1.1549933674       -0.6470656343
X        -1.4189699831       -1.0717956009       -0.7026306484
X        -0.0396963625        0.2680638635       -0.7903917751
X        -0.6641721611        1.0214520647       -0.8995776886
X         0.2763552879        1.1986325051       -0.9296304733
X         1.5651091183        0.1560672167       -1.0048040830
X        -1.5891887609       -0.2788433029       -1.0873269533
X         0.8938001409       -0.4979449582       -1.2963863781
X         0.0725110328       -1.1627888400       -1.4907050242
X         0.7317627878        0.4306997280       -1.3465283766
X        -0.7930201310       -0.7477814542       -1.4158103788
X        -0.8399019832        0.2017175902       -1.3686086869
X         0.0169928309       -0.2361215568       -1.5894826936
X        -0.1149778378        0.7200488985       -1.6413761641
          55
Energy of minimum      8=      -52.6568300326 first found at generation     2978
X        -0.1188506091        1.0364173057        1.4597990597
X        -0.5165225181        0.4254334642        2.0095181429
X         0.3131492201        0.1838212342        1.6939370039
X        -0.4715242941       -0.2767293836        1.4124259455
X         1.1816441532       -0.1170899866        1.3655925199
X         0.8106598716        0.7939971526        1.1992035976
X         0.4404035936       -1.4516364829        0.7920781446
X        -0.9431328031        0.5129562785        1.1986917540
X         0.3853290893       -0.5172445007        1.0283427495
X         1.2189539058       -1.0147465161        1.0157364995
X        -0.3976653180       -0.9926427251        0.7978593509
X         1.6838798358        0.5081455150        0.8973277981
X        -0.0511079426        0.3857941046        0.7996067105
X         0.2894329593        1.3775681142        0.6582203073
X        -0.6502848947        1.1991385223        0.6523274687
X         1.6991695449       -0.3765979797        0.5545137017
X         0.8808122513        0.1428626292        0.4970389035
X        -0.8988661456       -0.2004169228        0.5422478428
X         1.1865885848        1.0934756079        0.3631302175
X         0.8306371920       -1.7416491923       -0.0117456751
X        -1.4293209805        0.5612591164        0.3623890579
X        -0.0240360341       -1.3160875718       -0.0155139101
X        -0.0383519038       -0.3118179610        0.1281672504
X         1.6076299143       -1.2622280389        0.1780585031
X         0.8096509160       -0.7838202390        0.1607979558
X        -0.9424310911       -1.0180515175        0.0336636697
X        -0.5789242877        0.5321030234       -0.0439813074
X         0.3733550406        0.7529914140       -0.0545018694
X         1.6745993564        0.3726289842       -0.0560272750
X        -1.1619650134        1.3038347303       -0.1401970954
X         0.6862367931        1.6602210830       -0.1793521316
X        -1.5711033679       -0.2922542333       -0.1484807774
X        -0.2393683642        1.4994365070       -0.1575989015
X         1.6887856378       -0.5121812405       -0.3871009808
X         0.8516252243       -0.0164266446       -0.4714503608
X        -0.7436918751       -0.3224261997       -0.5891251264
X         0.3366066215       -1.6691350764       -0.8285166829
X         1.1556679634        0.9333285145       -0.6115326005
X         0.1907119360       -0.6908955601       -0.7353081894
X        -1.3641978759        0.5076976954       -0.6056904655
X        -0.5422505601       -1.3325947995       -0.8222628656
X         1.0869373696       -1.1453208796       -0.6939467507
X        -1.4196151172       -1.0302889212       -0.7619557552
X        -0.0232918145        0.2960418931       -0.8107000160
X        -0.6375171230        1.0582589538       -0.9078888992
X         0.3046993261        1.2264753507       -0.9274098738
X         1.5837426857        0.1738849891       -1.0175463798
X        -1.5743208167       -0.2280785333       -1.1332887737
X         0.9097722210       -0.4676965151       -1.3268366544
X         0.0753620500       -1.1234494777       -1.5424933069
X         0.7549011949        0.4628147808       -1.3583955508
X        -0.7821808304       -0.6969117260       -1.4646667748
X        -0.8180280866        0.2515388845       -1.3969462587
X         0.0365058883       -0.1926561061       -1.6191344954
X        -0.0853794012        0.7669635180       -1.6524826182
          55
Energy of minimum      9=      -52.6568290336 first found at generation     1151
X        -0.1374319907        1.0147655432        1.4525824527
X        -0.5367874364        0.4055961959        2.0035997667
X         0.2953034306        0.1656513287        1.6927164784
X        -0.4861099604       -0.2970083552        1.4078216666
X         1.1670589686       -0.1353157768        1.3745786615
X         0.7964074815        0.7759326105        1.2025715842
X         0.4328819586       -1.4723554912        0.7999750513
X        -0.9578138506        0.4919747512        1.1899288821
X         0.3749059604       -0.5378133497        1.0311941786
X         1.2098672171       -1.0348688020        1.0273424580
X        -0.4056628657       -1.0153997659        0.7968460264
X         1.6720223517        0.4910739463        0.9103626881
X        -0.0630408805        0.3635484818        0.7938443498
X         0.2771943219        1.3536355888        0.6535068413
X        -0.6623188557        1.1722581495        0.6370072378
X         1.6913861562       -0.3944926643        0.5699462654
X         0.8728891138        0.1230626277        0.5031630402
X        -0.9043468744       -0.2215285835        0.5348365759
X         1.1788326531        1.0730431859        0.3686236961
X         0.8356989267       -1.7619362395        0.0011047431
X        -1.4318117640        0.5397135624        0.3442849534
X        -0.0210130240       -1.3410070797       -0.0133576916